                         Program Version 4.0.1.2 - RELEASE -
|  1> ! TightOpt PBE0 RIJCOSX D3BJ def2-SVP def2/J PAL4 Freq
|  2> %maxcore 4000
|  3> %geom
|  4> Calc_Hess true
|  5> Trust -0.1
|  6> end
|  7> *xyz 0 1
|  8>  C                 -1.95870000    0.70530000    0.44230000
|  9>  C                 -2.15930000   -0.62720000    0.05720000
| 10>  C                 -0.69840000    1.28910000    0.38720000
| 11>  C                  0.41400000    0.54620000   -0.02030000
| 12>  C                  0.22500000   -0.78580000   -0.40010000
| 13>  C                 -1.04480000   -1.35690000   -0.36890000
| 14>  H                 -1.17750000   -2.38960000   -0.70220000
| 15>  C                 -3.52380000   -1.25090000    0.10040000
| 16>  H                 -2.81230000    1.30230000    0.77490000
| 17>  H                 -0.56170000    2.33890000    0.65480000
| 18>  C                  1.72740000    1.25680000   -0.18200000
| 19>  H                  1.07270000   -1.37700000   -0.75470000
| 20>  O                  1.76990000    2.31980000   -0.77640000
| 21>  N                  2.85260000    0.66100000    0.32540000
| 22>  C                  2.86280000   -0.41070000    1.28620000
| 23>  C                  4.12800000    1.27840000    0.05140000
| 24>  H                  3.36390000   -1.31070000    0.88810000
| 25>  H                  1.84400000   -0.68250000    1.58350000
| 26>  H                  3.40880000   -0.09740000    2.19370000
| 27>  H                  3.97160000    2.08150000   -0.67730000
| 28>  H                  4.83820000    0.53730000   -0.35260000
| 29>  H                  4.56700000    1.71510000    0.96690000
| 30>  H                 -3.50112331   -2.29496392   -0.24126832
| 31>  H                 -4.23523540   -0.70098320   -0.53355583
| 32>  H                 -3.93207226   -1.25151924    1.12510128
| 33> *
| 34>
| 35>                          ****END OF INPUT****
 Total Charge           Charge          ....    0
 Multiplicity           Mult            ....    1
 Number of Electrons    NEL             ....   88
Dispersion correction           -0.023540543
FINAL SINGLE POINT ENERGY      -517.929107908025
Dispersion correction            ... done
Dispersion correction in the Hessian             ... done   (      3.4 sec)
Dispersion correction           -0.023535248
FINAL SINGLE POINT ENERGY      -517.929081327508
Dispersion correction            ... done
Dispersion correction           -0.023541433
FINAL SINGLE POINT ENERGY      -517.929090129776
FINAL SINGLE POINT ENERGY      -517.929114398414
FINAL SINGLE POINT ENERGY      -517.929133796338
FINAL SINGLE POINT ENERGY      -517.929130311329
FINAL SINGLE POINT ENERGY      -517.929135834621
FINAL SINGLE POINT ENERGY      -517.929139487228
Dispersion correction           -0.023543293
FINAL SINGLE POINT ENERGY      -517.929143643662
Dispersion correction            ... done
Dispersion correction           -0.023542803
FINAL SINGLE POINT ENERGY      -517.929144365566
Dispersion correction            ... done
                    ***********************HURRAY********************

CARTESIAN COORDINATES (ANGSTROEM)
---------------------------------
  C     -1.955347    0.703613    0.431150
  C     -2.155946   -0.633899    0.062268
  C     -0.696306    1.287105    0.366136
  C      0.416211    0.539785   -0.035075
  C      0.227083   -0.795312   -0.401358
  C     -1.042992   -1.367125   -0.359886
  H     -1.175898   -2.403986   -0.680123
  C     -3.524451   -1.247679    0.109045
  H     -2.808917    1.303045    0.759316
  H     -0.558811    2.339564    0.622620
  C      1.729733    1.250090   -0.196793
  H      1.074226   -1.390719   -0.750502
  O      1.774275    2.308292   -0.799774
  N      2.852253    0.661626    0.324908
  C      2.858215   -0.403800    1.292783
  C      4.127777    1.282015    0.058056
  H      3.367094   -1.303975    0.905162
  H      1.838139   -0.678659    1.582321
  H      3.394495   -0.082193    2.203231
  H      3.974386    2.081210   -0.675513
  H      4.843761    0.541739   -0.336687
  H      4.557519    1.724176    0.975293
  H     -3.539904   -2.235096   -0.372320
  H     -4.262212   -0.611738   -0.403543
  H     -3.873412   -1.372548    1.147062

 Multiplicity           Mult            ....    1
 Number of Electrons    NEL             ....   88
 Basis Dimension        Dim             ....  233

ORBITAL ENERGIES
----------------

  NO   OCC          E(Eh)            E(eV)
   0   2.0000     -19.165872      -521.5299
   1   2.0000     -14.422028      -392.4433
   2   2.0000     -10.325536      -280.9721
   3   2.0000     -10.270784      -279.4822
   4   2.0000     -10.258396      -279.1451
   5   2.0000     -10.251261      -278.9510
   6   2.0000     -10.246311      -278.8163
   7   2.0000     -10.245513      -278.7946
   8   2.0000     -10.241328      -278.6807
   9   2.0000     -10.240717      -278.6641
  10   2.0000     -10.238848      -278.6132
  11   2.0000     -10.237711      -278.5823
  12   2.0000      -1.051087       -28.6015
  13   2.0000      -0.953070       -25.9344
  14   2.0000      -0.883448       -24.0398
  15   2.0000      -0.802479       -21.8366
  16   2.0000      -0.765362       -20.8266
  17   2.0000      -0.741122       -20.1670
  18   2.0000      -0.725558       -19.7434
  19   2.0000      -0.692973       -18.8568
  20   2.0000      -0.626824       -17.0567
  21   2.0000      -0.611484       -16.6393
  22   2.0000      -0.565635       -15.3917
  23   2.0000      -0.541195       -14.7267
  24   2.0000      -0.498488       -13.5646
  25   2.0000      -0.489915       -13.3313
  26   2.0000      -0.481996       -13.1158
  27   2.0000      -0.475289       -12.9333
  28   2.0000      -0.452979       -12.3262
  29   2.0000      -0.437856       -11.9147
  30   2.0000      -0.435198       -11.8423
  31   2.0000      -0.417104       -11.3500
  32   2.0000      -0.414415       -11.2768
  33   2.0000      -0.412795       -11.2327
  34   2.0000      -0.403925       -10.9914
  35   2.0000      -0.396363       -10.7856
  36   2.0000      -0.383802       -10.4438
  37   2.0000      -0.367888       -10.0107
  38   2.0000      -0.366603        -9.9758
  39   2.0000      -0.351751        -9.5716
  40   2.0000      -0.275423        -7.4946
  41   2.0000      -0.268900        -7.3171
  42   2.0000      -0.251685        -6.8487
  43   2.0000      -0.247484        -6.7344
  44   0.0000      -0.022392        -0.6093
  45   0.0000      -0.007258        -0.1975
  46   0.0000       0.053067         1.4440
  47   0.0000       0.062556         1.7022
  48   0.0000       0.076464         2.0807

MULLIKEN ATOMIC CHARGES
-----------------------
   0 C :   -0.027853
   1 C :   -0.099163
   2 C :    0.019883
   3 C :   -0.126166
   4 C :   -0.002517
   5 C :   -0.027386
   6 H :    0.005361
   7 C :    0.012487
   8 H :    0.007815
   9 H :    0.024795
  10 C :    0.260859
  11 H :    0.014289
  12 O :   -0.281771
  13 N :   -0.389206
  14 C :    0.061842
  15 C :    0.051552
  16 H :    0.043418
  17 H :    0.081163
  18 H :    0.044223
  19 H :    0.084183
  20 H :    0.044270
  21 H :    0.042605
  22 H :    0.036529
  23 H :    0.057465
  24 H :    0.061322
Sum of atomic charges:   -0.0000000

LOEWDIN ATOMIC CHARGES
----------------------
   0 C :   -0.032031
   1 C :   -0.027421
   2 C :   -0.000543
   3 C :   -0.071103
   4 C :   -0.022729
   5 C :   -0.037189
   6 H :    0.031158
   7 C :   -0.060369
   8 H :    0.032493
   9 H :    0.040465
  10 C :    0.073515
  11 H :    0.033584
  12 O :   -0.217901
  13 N :   -0.064313
  14 C :    0.016174
  15 C :    0.015110
  16 H :    0.021956
  17 H :    0.037616
  18 H :    0.025237
  19 H :    0.039939
  20 H :    0.024061
  21 H :    0.022893
  22 H :    0.034132
  23 H :    0.041974
  24 H :    0.043291

  Mayer bond orders larger than 0.1
B(  0-C ,  1-C ) :   1.3728 B(  0-C ,  2-C ) :   1.3983 B(  0-C ,  8-H ) :   0.9883
B(  1-C ,  5-C ) :   1.4077 B(  1-C ,  7-C ) :   1.0568 B(  2-C ,  3-C ) :   1.3915
B(  2-C ,  9-H ) :   0.9857 B(  3-C ,  4-C ) :   1.3833 B(  3-C , 10-C ) :   0.9168
B(  4-C ,  5-C ) :   1.3887 B(  4-C , 11-H ) :   0.9839 B(  5-C ,  6-H ) :   0.9797
B(  7-C , 22-H ) :   0.9616 B(  7-C , 23-H ) :   0.9576 B(  7-C , 24-H ) :   0.9551
B( 10-C , 12-O ) :   2.0283 B( 10-C , 13-N ) :   1.1549 B( 13-N , 14-C ) :   0.9771
B( 13-N , 15-C ) :   0.9671 B( 14-C , 16-H ) :   0.9674 B( 14-C , 17-H ) :   0.9612
B( 14-C , 18-H ) :   0.9644 B( 15-C , 19-H ) :   0.9556 B( 15-C , 20-H ) :   0.9706
B( 15-C , 21-H ) :   0.9707

Dispersion correction           -0.023543336
FINAL SINGLE POINT ENERGY      -517.929145739968

DIPOLE MOMENT
-------------
                                X             Y             Z
Electronic contribution:     -0.84287       4.60814      -2.91804
Nuclear contribution   :      0.83427      -5.77509       3.70791
                        -----------------------------------------
Total Dipole Moment    :     -0.00860      -1.16695       0.78987
                        -----------------------------------------
Magnitude (a.u.)       :      1.40916
Magnitude (Debye)      :      3.58181

Dispersion correction in the Hessian             ... done   (      3.3 sec)

VIBRATIONAL FREQUENCIES
-----------------------

   0:         0.00 cm**-1
   1:         0.00 cm**-1
   2:         0.00 cm**-1
   3:         0.00 cm**-1
   4:         0.00 cm**-1
   5:         0.00 cm**-1
   6:       -35.86 cm**-1 ***imaginary mode***
   7:        48.74 cm**-1
   8:        77.11 cm**-1
   9:        85.53 cm**-1
  10:       115.94 cm**-1
  11:       161.94 cm**-1
  12:       201.40 cm**-1
  13:       216.84 cm**-1
  14:       279.99 cm**-1
  15:       302.67 cm**-1
  16:       348.92 cm**-1
  17:       360.86 cm**-1
  18:       406.21 cm**-1
  19:       423.94 cm**-1
  20:       461.27 cm**-1
  21:       564.65 cm**-1
  22:       601.32 cm**-1
  23:       647.85 cm**-1
  24:       711.41 cm**-1
  25:       739.08 cm**-1
  26:       774.93 cm**-1
  27:       828.10 cm**-1
  28:       859.28 cm**-1
  29:       866.49 cm**-1
  30:       963.11 cm**-1
  31:       989.63 cm**-1
  32:       997.75 cm**-1
  33:      1006.38 cm**-1
  34:      1036.81 cm**-1
  35:      1051.33 cm**-1
  36:      1074.95 cm**-1
  37:      1103.23 cm**-1
  38:      1118.29 cm**-1
  39:      1133.33 cm**-1
  40:      1168.49 cm**-1
  41:      1193.87 cm**-1
  42:      1250.72 cm**-1
  43:      1265.78 cm**-1
  44:      1316.03 cm**-1
  45:      1335.95 cm**-1
  46:      1382.21 cm**-1
  47:      1394.71 cm**-1
  48:      1405.98 cm**-1
  49:      1435.82 cm**-1
  50:      1443.03 cm**-1
  51:      1449.57 cm**-1
  52:      1456.51 cm**-1
  53:      1460.55 cm**-1
  54:      1468.74 cm**-1
  55:      1472.76 cm**-1
  56:      1479.79 cm**-1
  57:      1535.69 cm**-1
  58:      1569.20 cm**-1
  59:      1650.67 cm**-1
  60:      1703.04 cm**-1
  61:      1799.70 cm**-1
  62:      3025.06 cm**-1
  63:      3031.09 cm**-1
  64:      3057.39 cm**-1
  65:      3092.14 cm**-1
  66:      3105.02 cm**-1
  67:      3139.80 cm**-1
  68:      3168.80 cm**-1
  69:      3197.38 cm**-1
  70:      3198.69 cm**-1
  71:      3200.32 cm**-1
  72:      3205.54 cm**-1
  73:      3215.15 cm**-1
  74:      3228.26 cm**-1

IR SPECTRUM
-----------

 Mode    freq (cm**-1)   T**2         TX         TY         TZ
-------------------------------------------------------------------
   7:        48.74    2.180972  ( -0.118815   0.554984   1.363396)
   8:        77.11    0.629568  (  0.355523   0.629378  -0.327192)
   9:        85.53    1.726939  ( -0.973181  -0.847091  -0.249592)
  10:       115.94    0.213055  ( -0.171054   0.241765  -0.354042)
  11:       161.94    0.276573  (  0.291163  -0.334023   0.283242)
  12:       201.40    1.537242  ( -1.234489  -0.069334  -0.092046)
  13:       216.84    0.336993  (  0.426917  -0.191404   0.343656)
  14:       279.99    4.986932  ( -0.634438   1.566118   1.460032)
  15:       302.67    1.478281  (  1.003112   0.315762   0.610197)
  16:       348.92    2.136364  (  1.230611   0.296898   0.730624)
  17:       360.86    5.615253  (  2.252865  -0.449304  -0.581358)
  18:       406.21    5.496728  (  2.316369   0.308184   0.190227)
  19:       423.94    1.529484  (  1.216051   0.212887   0.073362)
  20:       461.27   12.164462  ( -1.602903  -2.195891   2.184771)
  21:       564.65    6.902493  ( -1.644305  -0.399825  -2.009700)
  22:       601.32    9.992302  (  2.643132  -0.533729   1.649633)
  23:       647.85    0.725273  (  0.319264  -0.475774  -0.630065)
  24:       711.41    1.003146  ( -0.603078   0.572341   0.558452)
  25:       739.08    4.956171  (  1.218804   0.147234   1.857151)
  26:       774.93   25.338571  (  1.906156   0.637244   4.615091)
  27:       828.10    1.799648  ( -0.697007   0.728272  -0.885127)
  28:       859.28   15.335476  (  0.832330  -1.997518   3.263836)
  29:       866.49    2.590613  (  0.620321   0.824536  -1.235296)
  30:       963.11    0.589562  ( -0.131198  -0.659879   0.370012)
  31:       989.63    2.599229  ( -0.422917   0.589258  -1.439842)
  32:       997.75    1.287619  (  0.749129   0.525524  -0.671006)
  33:      1006.38    1.628394  (  1.220319   0.303731  -0.216712)
  34:      1036.81   16.824507  ( -3.996804  -0.328676  -0.861415)
  35:      1051.33    5.970652  ( -0.684528  -1.066566   2.089141)
  36:      1074.95    6.781643  (  2.335077   1.106583  -0.323318)
  37:      1103.23  117.410445  ( 10.182277  -1.706561   3.289275)
  38:      1118.29    0.048903  (  0.145128   0.114706   0.121175)
  39:      1133.33    6.033634  ( -0.777408   2.180135   0.822364)
  40:      1168.49    3.257472  (  1.327856  -1.014304  -0.682245)
  41:      1193.87    9.228722  ( -2.947446  -0.311096  -0.666712)
  42:      1250.72    3.381477  ( -1.509503   0.335750  -0.995063)
  43:      1265.78   43.896545  (  6.355641  -0.198750   1.860881)
  44:      1316.03    3.644046  (  1.874696   0.166039  -0.319360)
  45:      1335.95   52.255763  ( -6.604397  -2.806619   0.872122)
  46:      1382.21    4.005646  ( -1.990616   0.145863  -0.147713)
  47:      1394.71    0.332291  ( -0.102318  -0.162309   0.543579)
  48:      1405.98   12.919554  ( -1.677421  -2.217809   2.277528)
  49:      1435.82  107.998731  ( -9.836867   1.173366  -3.139743)
  50:      1443.03    2.967799  ( -1.496529  -0.766374  -0.375330)
  51:      1449.57   61.439064  (  7.493532   2.298994  -0.025870)
  52:      1456.51    8.217309  (  1.505099  -0.912613   2.262548)
  53:      1460.55    6.839527  ( -2.062505  -0.174480  -1.598486)
  54:      1468.74   23.718945  (  0.218778  -1.287972  -4.691717)
  55:      1472.76   14.268453  ( -2.642760   2.494777  -1.029738)
  56:      1479.79   13.027654  (  0.480940   3.519211   0.641487)
  57:      1535.69  134.834599  ( 11.284022  -0.731802   2.640059)
  58:      1569.20   32.347983  ( -4.905665   1.912556  -2.150479)
  59:      1650.67    1.831836  ( -0.369474  -1.175864   0.559167)
  60:      1703.04   27.364890  ( -4.828005  -2.012197  -0.079518)
  61:      1799.70  312.551777  ( -3.693643  14.363165  -9.623320)
  62:      3025.06   28.330426  (  0.803355   4.434401  -2.832161)
  63:      3031.09   98.062032  (  8.950804  -1.451184   3.979849)
  64:      3057.39   20.738423  ( -4.129848  -1.861970   0.464593)
  65:      3092.14   35.732133  (  0.016276   4.084175   4.364789)
  66:      3105.02   17.092054  ( -1.717296   2.398868   2.896270)
  67:      3139.80    7.241810  (  0.927818  -0.511119   2.473807)
  68:      3168.80    7.896405  (  0.191636  -2.655156  -0.899905)
  69:      3197.38    9.194939  ( -2.775573  -1.208688   0.173805)
  70:      3198.69    1.966007  ( -0.537657  -1.139669  -0.614888)
  71:      3200.32    7.690383  ( -2.279696   1.389464   0.750174)
  72:      3205.54    1.443612  ( -1.159694   0.207244  -0.236160)
  73:      3215.15    6.962686  (  0.829197  -2.367912  -0.817380)
  74:      3228.26    1.958876  (  0.875617  -0.942124  -0.551882)

--------------------------
THERMOCHEMISTRY AT 298.15K
--------------------------

Temperature         ... 298.15 K
Pressure            ... 1.00 atm
Total Mass          ... 163.22 AMU

Throughout the following assumptions are being made:
  (1) The electronic state is orbitally nondegenerate
  (2) There are no thermally accessible electronically excited states
  (3) Hindered rotations indicated by low frequency modes are not
      treated as such but are treated as vibrations and this may
      cause some error
  (4) All equations used are the standard statistical mechanics
      equations for an ideal gas
  (5) All vibrations are strictly harmonic

freq.      48.74  E(vib)   ...       0.53
freq.      77.11  E(vib)   ...       0.49
freq.      85.53  E(vib)   ...       0.48
freq.     115.94  E(vib)   ...       0.44
freq.     161.94  E(vib)   ...       0.39
freq.     201.40  E(vib)   ...       0.35
freq.     216.84  E(vib)   ...       0.34
freq.     279.99  E(vib)   ...       0.28
freq.     302.67  E(vib)   ...       0.26
freq.     348.92  E(vib)   ...       0.23
freq.     360.86  E(vib)   ...       0.22
freq.     406.21  E(vib)   ...       0.19
freq.     423.94  E(vib)   ...       0.18
freq.     461.27  E(vib)   ...       0.16
freq.     564.65  E(vib)   ...       0.11
freq.     601.32  E(vib)   ...       0.10
freq.     647.85  E(vib)   ...       0.09
freq.     711.41  E(vib)   ...       0.07
freq.     739.08  E(vib)   ...       0.06
freq.     774.93  E(vib)   ...       0.05
freq.     828.10  E(vib)   ...       0.04
freq.     859.28  E(vib)   ...       0.04
freq.     866.49  E(vib)   ...       0.04
freq.     963.11  E(vib)   ...       0.03
freq.     989.63  E(vib)   ...       0.02
freq.     997.75  E(vib)   ...       0.02
freq.    1006.38  E(vib)   ...       0.02
freq.    1036.81  E(vib)   ...       0.02
freq.    1051.33  E(vib)   ...       0.02
freq.    1074.95  E(vib)   ...       0.02
freq.    1103.23  E(vib)   ...       0.02
freq.    1118.29  E(vib)   ...       0.01
freq.    1133.33  E(vib)   ...       0.01
freq.    1168.49  E(vib)   ...       0.01
freq.    1193.87  E(vib)   ...       0.01
freq.    1250.72  E(vib)   ...       0.01
freq.    1265.78  E(vib)   ...       0.01
freq.    1316.03  E(vib)   ...       0.01
freq.    1335.95  E(vib)   ...       0.01
freq.    1382.21  E(vib)   ...       0.01
freq.    1394.71  E(vib)   ...       0.00
freq.    1405.98  E(vib)   ...       0.00
freq.    1435.82  E(vib)   ...       0.00
freq.    1443.03  E(vib)   ...       0.00
freq.    1449.57  E(vib)   ...       0.00
freq.    1456.51  E(vib)   ...       0.00
freq.    1460.55  E(vib)   ...       0.00
freq.    1468.74  E(vib)   ...       0.00
freq.    1472.76  E(vib)   ...       0.00
freq.    1479.79  E(vib)   ...       0.00
freq.    1535.69  E(vib)   ...       0.00
freq.    1569.20  E(vib)   ...       0.00
freq.    1650.67  E(vib)   ...       0.00
freq.    1703.04  E(vib)   ...       0.00
freq.    1799.70  E(vib)   ...       0.00
freq.    3025.06  E(vib)   ...       0.00
freq.    3031.09  E(vib)   ...       0.00
freq.    3057.39  E(vib)   ...       0.00
freq.    3092.14  E(vib)   ...       0.00
freq.    3105.02  E(vib)   ...       0.00
freq.    3139.80  E(vib)   ...       0.00
freq.    3168.80  E(vib)   ...       0.00
freq.    3197.38  E(vib)   ...       0.00
freq.    3198.69  E(vib)   ...       0.00
freq.    3200.32  E(vib)   ...       0.00
freq.    3205.54  E(vib)   ...       0.00
freq.    3215.15  E(vib)   ...       0.00
freq.    3228.26  E(vib)   ...       0.00

------------
INNER ENERGY
------------

The inner energy is: U= E(el) + E(ZPE) + E(vib) + E(rot) + E(trans)
    E(el)   - is the total energy from the electronic structure calculation
              = E(kin-el) + E(nuc-el) + E(el-el) + E(nuc-nuc)
    E(ZPE)  - the the zero temperature vibrational energy from the frequency calculation
    E(vib)  - the the finite temperature correction to E(ZPE) due to population
              of excited vibrational states
    E(rot)  - is the rotational thermal energy
    E(trans)- is the translational thermal energy

Summary of contributions to the inner energy U:
Electronic energy                ...   -517.92914574 Eh
Zero point energy                ...      0.21201250 Eh     133.04 kcal/mol
Thermal vibrational correction   ...      0.00866165 Eh       5.44 kcal/mol
Thermal rotational correction    ...      0.00141627 Eh       0.89 kcal/mol
Thermal translational correction ...      0.00141627 Eh       0.89 kcal/mol
-----------------------------------------------------------------------
Total thermal energy                   -517.70563905 Eh

Summary of corrections to the electronic energy:
(perhaps to be used in another calculation)
Total thermal correction                  0.01149419 Eh       7.21 kcal/mol
Non-thermal (ZPE) correction              0.21201250 Eh     133.04 kcal/mol
-----------------------------------------------------------------------
Total correction                          0.22350669 Eh     140.25 kcal/mol

--------
ENTHALPY
--------

The enthalpy is H = U + kB*T
                kB is Boltzmann's constant
Total free energy                 ...   -517.70563905 Eh
Thermal Enthalpy correction       ...      0.00094421 Eh       0.59 kcal/mol
-----------------------------------------------------------------------
Total Enthalpy                    ...   -517.70469484 Eh

Vibrational entropy computed according to the QRRHO of S. Grimme
Chem.Eur.J. 2012 18 9955

-------
ENTROPY
-------

The entropy contributions are T*S = T*(S(el)+S(vib)+S(rot)+S(trans)
     S(el)   - electronic entropy
     S(vib)  - vibrational entropy
     S(rot)  - rotational entropy
     S(trans)- translational entropy
The entropies will be listed as mutliplied by the temperature to get
units of energy

Electronic entropy                ...      0.00000000 Eh      0.00 kcal/mol
Vibrational entropy               ...      0.01497837 Eh      9.40 kcal/mol
Rotational entropy                ...      0.01357657 Eh      8.52 kcal/mol
Translational entropy             ...      0.01956511 Eh     12.28 kcal/mol
-----------------------------------------------------------------------
Final entropy term                ...      0.04812006 Eh     30.20 kcal/mol

CAUTION: The rotational entropy is not quite correctly treated here
         because it includes a symmetry number that is not yet correctly
         implemented in ORCA!
For a nonlinear molecule the correct rotational entropy is:
    S(rot) = R*(ln(qrot/sn)+1.5)
    R    = 8.31441 J/mol/K = 1.987191683e-3 kcal/mol/K
    qrot = 1176223.2194652
    sn is the rotational symmetry number. We have assumed 3 here

                             ****ORCA TERMINATED NORMALLY****
TOTAL RUN TIME: 0 days 0 hours 19 minutes 38 seconds 761 msec
