                         Program Version 4.0.1.2 - RELEASE -
|  1> ! Opt PBE0 RIJCOSX D3BJ def2-SVP def2/J PAL4 Freq
|  2> %maxcore 4000
|  3> *xyz 0 1
|  4> C         -1.96507        0.76098       -0.09222
|  5> C         -2.04571       -0.63172       -0.05199
|  6> C         -0.72456        1.38505       -0.02228
|  7> C          0.44032        0.61907        0.08408
|  8> C          0.35867       -0.77727        0.12118
|  9> C         -0.88547       -1.39840        0.05465
| 10> H         -0.95381       -2.48853        0.08890
| 11> H         -3.01911       -1.12554       -0.10805
| 12> H         -2.87286        1.36098       -0.18336
| 13> H         -0.62443        2.47242       -0.05063
| 14> C          1.73612        1.34100        0.16201
| 15> H          1.27243       -1.36670        0.20931
| 16> O          1.85228        2.54105        0.18350
| 17> O          2.86092        0.57972        0.23291
| 18> C          4.14162        1.08515        0.31915
| 19> H          4.86270        0.24333        0.36284
| 20> H          4.25029        1.69750        1.23980
| 21> H          4.36925        1.70544       -0.57403
| 22> *
| 23>
| 24>                          ****END OF INPUT****
 Total Charge           Charge          ....    0
 Multiplicity           Mult            ....    1
 Number of Electrons    NEL             ....   72
Dispersion correction           -0.015405882
FINAL SINGLE POINT ENERGY      -459.280540946832
Dispersion correction            ... done
Dispersion correction           -0.015500995
FINAL SINGLE POINT ENERGY      -459.285818748660
Dispersion correction            ... done
Dispersion correction           -0.015533776
FINAL SINGLE POINT ENERGY      -459.286713509128
Dispersion correction            ... done
FINAL SINGLE POINT ENERGY      -459.286564075270
FINAL SINGLE POINT ENERGY      -459.286869805058
Dispersion correction           -0.015518919
FINAL SINGLE POINT ENERGY      -459.286867321248
Dispersion correction            ... done
Dispersion correction           -0.015519416
FINAL SINGLE POINT ENERGY      -459.286864183101
Dispersion correction            ... done
                    ***********************HURRAY********************

CARTESIAN COORDINATES (ANGSTROEM)
---------------------------------
  C     -1.937390    0.771301   -0.071863
  C     -2.029121   -0.620458   -0.028918
  C     -0.690241    1.385330   -0.030055
  C      0.471265    0.610811    0.053330
  C      0.377660   -0.784617    0.090335
  C     -0.872444   -1.395864    0.049997
  H     -0.948942   -2.485430    0.086294
  H     -3.007743   -1.106389   -0.057930
  H     -2.842683    1.378430   -0.138980
  H     -0.583350    2.472125   -0.057838
  C      1.774329    1.324085    0.127225
  H      1.289228   -1.379466    0.159261
  O      1.895367    2.523821    0.146802
  O      2.817263    0.486260    0.187025
  C      4.087562    1.094544    0.335506
  H      4.812203    0.276210    0.417542
  H      4.117042    1.722509    1.238479
  H      4.323577    1.730329   -0.530443

 Multiplicity           Mult            ....    1
 Number of Electrons    NEL             ....   72
 Basis Dimension        Dim             ....  180

ORBITAL ENERGIES
----------------

  NO   OCC          E(Eh)            E(eV)
   0   2.0000     -19.258713      -524.0562
   1   2.0000     -19.195224      -522.3286
   2   2.0000     -10.358894      -281.8798
   3   2.0000     -10.290861      -280.0286
   4   2.0000     -10.252999      -278.9983
   5   2.0000     -10.251731      -278.9638
   6   2.0000     -10.250728      -278.9365
   7   2.0000     -10.248532      -278.8767
   8   2.0000     -10.248335      -278.8714
   9   2.0000     -10.247605      -278.8515
  10   2.0000      -1.132427       -30.8149
  11   2.0000      -1.035426       -28.1754
  12   2.0000      -0.887621       -24.1534
  13   2.0000      -0.796121       -21.6635
  14   2.0000      -0.771764       -21.0008
  15   2.0000      -0.741312       -20.1721
  16   2.0000      -0.647069       -17.6076
  17   2.0000      -0.627282       -17.0692
  18   2.0000      -0.584167       -15.8960
  19   2.0000      -0.559728       -15.2310
  20   2.0000      -0.505551       -13.7567
  21   2.0000      -0.504829       -13.7371
  22   2.0000      -0.495994       -13.4967
  23   2.0000      -0.468920       -12.7600
  24   2.0000      -0.459510       -12.5039
  25   2.0000      -0.443563       -12.0700
  26   2.0000      -0.433796       -11.8042
  27   2.0000      -0.422067       -11.4850
  28   2.0000      -0.384424       -10.4607
  29   2.0000      -0.379819       -10.3354
  30   2.0000      -0.373236       -10.1563
  31   2.0000      -0.359994        -9.7959
  32   2.0000      -0.319730        -8.7003
  33   2.0000      -0.292881        -7.9697
  34   2.0000      -0.277376        -7.5478
  35   2.0000      -0.276022        -7.5110
  36   0.0000      -0.046215        -1.2576
  37   0.0000      -0.011536        -0.3139
  38   0.0000       0.061348         1.6694
  39   0.0000       0.071649         1.9497
  40   0.0000       0.088840         2.4175

MULLIKEN ATOMIC CHARGES
-----------------------
   0 C :   -0.012018
   1 C :   -0.001033
   2 C :   -0.000700
   3 C :   -0.139249
   4 C :    0.030021
   5 C :   -0.031288
   6 H :    0.031638
   7 H :    0.025292
   8 H :    0.026741
   9 H :    0.041801
  10 C :    0.291219
  11 H :    0.030298
  12 O :   -0.248006
  13 O :   -0.335191
  14 C :    0.119538
  15 H :    0.056736
  16 H :    0.056413
  17 H :    0.057788
Sum of atomic charges:   -0.0000000

LOEWDIN ATOMIC CHARGES
----------------------
   0 C :   -0.030914
   1 C :   -0.014965
   2 C :    0.004973
   3 C :   -0.080260
   4 C :   -0.003191
   5 C :   -0.034640
   6 H :    0.037055
   7 H :    0.035814
   8 H :    0.036719
   9 H :    0.043493
  10 C :    0.089151
  11 H :    0.038658
  12 O :   -0.181199
  13 O :   -0.092603
  14 C :    0.067943
  15 H :    0.029175
  16 H :    0.027321
  17 H :    0.027470

  Mayer bond orders larger than 0.1
B(  0-C ,  1-C ) :   1.3818 B(  0-C ,  2-C ) :   1.3850 B(  0-C ,  8-H ) :   0.9883
B(  1-C ,  5-C ) :   1.3876 B(  1-C ,  7-H ) :   0.9873 B(  2-C ,  3-C ) :   1.3957
B(  2-C ,  9-H ) :   0.9836 B(  3-C ,  4-C ) :   1.3755 B(  3-C , 10-C ) :   0.9527
B(  4-C ,  5-C ) :   1.3855 B(  4-C , 11-H ) :   0.9842 B(  5-C ,  6-H ) :   0.9863
B( 10-C , 12-O ) :   2.0556 B( 10-C , 13-O ) :   1.1953 B( 13-O , 14-C ) :   0.9111
B( 14-C , 15-H ) :   0.9780 B( 14-C , 16-H ) :   0.9731 B( 14-C , 17-H ) :   0.9739

Dispersion correction           -0.015519633
FINAL SINGLE POINT ENERGY      -459.286861041774

DIPOLE MOMENT
-------------
                                X             Y             Z
Electronic contribution:     -1.39990       1.18529      -0.30305
Nuclear contribution   :      1.42883      -1.90463       0.34509
                        -----------------------------------------
Total Dipole Moment    :      0.02893      -0.71934       0.04204
                        -----------------------------------------
Magnitude (a.u.)       :      0.72115
Magnitude (Debye)      :      1.83302

Dispersion correction in the Hessian             ... done   (      2.2 sec)

VIBRATIONAL FREQUENCIES
-----------------------

   0:         0.00 cm**-1
   1:         0.00 cm**-1
   2:         0.00 cm**-1
   3:         0.00 cm**-1
   4:         0.00 cm**-1
   5:         0.00 cm**-1
   6:        60.10 cm**-1
   7:       108.93 cm**-1
   8:       129.01 cm**-1
   9:       163.91 cm**-1
  10:       212.92 cm**-1
  11:       328.45 cm**-1
  12:       363.13 cm**-1
  13:       417.93 cm**-1
  14:       459.61 cm**-1
  15:       491.72 cm**-1
  16:       628.86 cm**-1
  17:       695.02 cm**-1
  18:       715.38 cm**-1
  19:       728.62 cm**-1
  20:       835.21 cm**-1
  21:       857.12 cm**-1
  22:       874.58 cm**-1
  23:       973.69 cm**-1
  24:      1017.39 cm**-1
  25:      1019.95 cm**-1
  26:      1036.28 cm**-1
  27:      1042.30 cm**-1
  28:      1059.47 cm**-1
  29:      1099.90 cm**-1
  30:      1166.50 cm**-1
  31:      1170.74 cm**-1
  32:      1174.04 cm**-1
  33:      1185.25 cm**-1
  34:      1223.76 cm**-1
  35:      1320.89 cm**-1
  36:      1349.93 cm**-1
  37:      1409.72 cm**-1
  38:      1454.63 cm**-1
  39:      1461.33 cm**-1
  40:      1476.32 cm**-1
  41:      1490.62 cm**-1
  42:      1536.44 cm**-1
  43:      1670.38 cm**-1
  44:      1691.03 cm**-1
  45:      1860.47 cm**-1
  46:      3067.43 cm**-1
  47:      3162.03 cm**-1
  48:      3202.97 cm**-1
  49:      3204.21 cm**-1
  50:      3215.89 cm**-1
  51:      3222.99 cm**-1
  52:      3233.01 cm**-1
  53:      3244.52 cm**-1

IR SPECTRUM
-----------

 Mode    freq (cm**-1)   T**2         TX         TY         TZ
-------------------------------------------------------------------
   6:        60.10    1.647363  (  0.083286  -0.015868  -1.280693)
   7:       108.93    1.507423  (  0.176463   0.015539  -1.214925)
   8:       129.01    0.111723  (  0.015876  -0.084140   0.323097)
   9:       163.91    1.500048  (  0.027909  -1.221089   0.090617)
  10:       212.92    2.406313  (  0.197394  -0.024775  -1.538420)
  11:       328.45   17.617062  (  4.046941  -1.070314   0.306191)
  12:       363.13    0.100866  ( -0.286226   0.085018  -0.108225)
  13:       417.93    0.010392  (  0.086379  -0.004194  -0.053972)
  14:       459.61    0.343276  (  0.378226   0.213562   0.393207)
  15:       491.72    4.805134  ( -1.689394  -1.394156  -0.086083)
  16:       628.86    0.342645  (  0.580688  -0.055537   0.048603)
  17:       695.02    7.137283  (  2.413128   1.127193  -0.208640)
  18:       715.38    6.653259  (  0.204389  -0.057913  -2.570628)
  19:       728.62   82.805427  (  0.611166  -0.266530  -9.075289)
  20:       835.21    0.369397  (  0.401130   0.400335   0.219598)
  21:       857.12    6.744204  ( -0.967173  -2.407360  -0.115746)
  22:       874.58    0.024555  (  0.065659   0.008941   0.142000)
  23:       973.69    0.822690  ( -0.050279  -0.125088  -0.896948)
  24:      1017.39    0.161442  ( -0.332908   0.020758  -0.224018)
  25:      1019.95    2.067690  ( -1.318272   0.574324   0.000543)
  26:      1036.28    0.020563  ( -0.118008   0.021732  -0.078518)
  27:      1042.30    6.167776  ( -0.142610   2.470374   0.211399)
  28:      1059.47   15.741540  ( -3.276290  -2.224100  -0.246668)
  29:      1099.90   12.942328  (  2.971613  -2.011760   0.254300)
  30:      1166.50   17.674134  (  4.173504   0.285504   0.417715)
  31:      1170.74    0.916872  (  0.771028   0.566205   0.042423)
  32:      1174.04    0.740145  ( -0.393959   0.006769  -0.764785)
  33:      1185.25   40.098025  (  6.195031   1.233768   0.444334)
  34:      1223.76   60.022004  ( -7.647093   1.077350  -0.619104)
  35:      1320.89   10.899384  ( -3.198340  -0.798737  -0.178961)
  36:      1349.93  513.249462  ( 22.598325   0.910051   1.317939)
  37:      1409.72    3.689045  ( -0.347420  -1.888813   0.026997)
  38:      1454.63   10.889745  ( -0.907730  -0.116904  -3.170505)
  39:      1461.33   60.020316  ( -7.704465  -0.812998  -0.023918)
  40:      1476.32    8.358848  (  0.182080   2.882840   0.122183)
  41:      1490.62   24.741496  (  4.603765  -1.851074   0.346938)
  42:      1536.44    7.710300  ( -2.653218   0.788265  -0.222202)
  43:      1670.38    3.468464  ( -0.849358  -1.656906  -0.041425)
  44:      1691.03   16.417357  (  3.738802   1.554097   0.153293)
  45:      1860.47  246.067611  ( -1.566215 -15.608125  -0.032083)
  46:      3067.43   34.802265  ( -5.738754  -1.252437  -0.548061)
  47:      3162.03   12.846766  (  0.544445   0.054046  -3.542234)
  48:      3202.97    0.291891  ( -0.538581  -0.042677  -0.000934)
  49:      3204.21    9.013334  (  2.171947  -2.054205   0.276078)
  50:      3215.89    6.911318  (  0.275883  -2.613303   0.076529)
  51:      3222.99    4.152381  (  1.837017   0.880899   0.042019)
  52:      3233.01    6.229514  (  2.491449   0.038510   0.143913)
  53:      3244.52    1.095065  ( -0.322624  -0.995429  -0.010012)

--------------------------
THERMOCHEMISTRY AT 298.15K
--------------------------

Temperature         ... 298.15 K
Pressure            ... 1.00 atm
Total Mass          ... 136.15 AMU

Throughout the following assumptions are being made:
  (1) The electronic state is orbitally nondegenerate
  (2) There are no thermally accessible electronically excited states
  (3) Hindered rotations indicated by low frequency modes are not
      treated as such but are treated as vibrations and this may
      cause some error
  (4) All equations used are the standard statistical mechanics
      equations for an ideal gas
  (5) All vibrations are strictly harmonic

freq.      60.10  E(vib)   ...       0.51
freq.     108.93  E(vib)   ...       0.45
freq.     129.01  E(vib)   ...       0.43
freq.     163.91  E(vib)   ...       0.39
freq.     212.92  E(vib)   ...       0.34
freq.     328.45  E(vib)   ...       0.24
freq.     363.13  E(vib)   ...       0.22
freq.     417.93  E(vib)   ...       0.18
freq.     459.61  E(vib)   ...       0.16
freq.     491.72  E(vib)   ...       0.14
freq.     628.86  E(vib)   ...       0.09
freq.     695.02  E(vib)   ...       0.07
freq.     715.38  E(vib)   ...       0.07
freq.     728.62  E(vib)   ...       0.06
freq.     835.21  E(vib)   ...       0.04
freq.     857.12  E(vib)   ...       0.04
freq.     874.58  E(vib)   ...       0.04
freq.     973.69  E(vib)   ...       0.03
freq.    1017.39  E(vib)   ...       0.02
freq.    1019.95  E(vib)   ...       0.02
freq.    1036.28  E(vib)   ...       0.02
freq.    1042.30  E(vib)   ...       0.02
freq.    1059.47  E(vib)   ...       0.02
freq.    1099.90  E(vib)   ...       0.02
freq.    1166.50  E(vib)   ...       0.01
freq.    1170.74  E(vib)   ...       0.01
freq.    1174.04  E(vib)   ...       0.01
freq.    1185.25  E(vib)   ...       0.01
freq.    1223.76  E(vib)   ...       0.01
freq.    1320.89  E(vib)   ...       0.01
freq.    1349.93  E(vib)   ...       0.01
freq.    1409.72  E(vib)   ...       0.00
freq.    1454.63  E(vib)   ...       0.00
freq.    1461.33  E(vib)   ...       0.00
freq.    1476.32  E(vib)   ...       0.00
freq.    1490.62  E(vib)   ...       0.00
freq.    1536.44  E(vib)   ...       0.00
freq.    1670.38  E(vib)   ...       0.00
freq.    1691.03  E(vib)   ...       0.00
freq.    1860.47  E(vib)   ...       0.00
freq.    3067.43  E(vib)   ...       0.00
freq.    3162.03  E(vib)   ...       0.00
freq.    3202.97  E(vib)   ...       0.00
freq.    3204.21  E(vib)   ...       0.00
freq.    3215.89  E(vib)   ...       0.00
freq.    3222.99  E(vib)   ...       0.00
freq.    3233.01  E(vib)   ...       0.00
freq.    3244.52  E(vib)   ...       0.00

------------
INNER ENERGY
------------

The inner energy is: U= E(el) + E(ZPE) + E(vib) + E(rot) + E(trans)
    E(el)   - is the total energy from the electronic structure calculation
              = E(kin-el) + E(nuc-el) + E(el-el) + E(nuc-nuc)
    E(ZPE)  - the the zero temperature vibrational energy from the frequency calculation
    E(vib)  - the the finite temperature correction to E(ZPE) due to population
              of excited vibrational states
    E(rot)  - is the rotational thermal energy
    E(trans)- is the translational thermal energy

Summary of contributions to the inner energy U:
Electronic energy                ...   -459.28686104 Eh
Zero point energy                ...      0.14469684 Eh      90.80 kcal/mol
Thermal vibrational correction   ...      0.00591832 Eh       3.71 kcal/mol
Thermal rotational correction    ...      0.00141627 Eh       0.89 kcal/mol
Thermal translational correction ...      0.00141627 Eh       0.89 kcal/mol
-----------------------------------------------------------------------
Total thermal energy                   -459.13341335 Eh

Summary of corrections to the electronic energy:
(perhaps to be used in another calculation)
Total thermal correction                  0.00875086 Eh       5.49 kcal/mol
Non-thermal (ZPE) correction              0.14469684 Eh      90.80 kcal/mol
-----------------------------------------------------------------------
Total correction                          0.15344770 Eh      96.29 kcal/mol

--------
ENTHALPY
--------

The enthalpy is H = U + kB*T
                kB is Boltzmann's constant
Total free energy                 ...   -459.13341335 Eh
Thermal Enthalpy correction       ...      0.00094421 Eh       0.59 kcal/mol
-----------------------------------------------------------------------
Total Enthalpy                    ...   -459.13246914 Eh

Vibrational entropy computed according to the QRRHO of S. Grimme
Chem.Eur.J. 2012 18 9955

-------
ENTROPY
-------

The entropy contributions are T*S = T*(S(el)+S(vib)+S(rot)+S(trans)
     S(el)   - electronic entropy
     S(vib)  - vibrational entropy
     S(rot)  - rotational entropy
     S(trans)- translational entropy
The entropies will be listed as mutliplied by the temperature to get
units of energy

Electronic entropy                ...      0.00000000 Eh      0.00 kcal/mol
Vibrational entropy               ...      0.01015977 Eh      6.38 kcal/mol
Rotational entropy                ...      0.01295157 Eh      8.13 kcal/mol
Translational entropy             ...      0.01930829 Eh     12.12 kcal/mol
-----------------------------------------------------------------------
Final entropy term                ...      0.04241962 Eh     26.62 kcal/mol

CAUTION: The rotational entropy is not quite correctly treated here
         because it includes a symmetry number that is not yet correctly
         implemented in ORCA!
For a nonlinear molecule the correct rotational entropy is:
    S(rot) = R*(ln(qrot/sn)+1.5)
    R    = 8.31441 J/mol/K = 1.987191683e-3 kcal/mol/K
    qrot = 606744.7487533
    sn is the rotational symmetry number. We have assumed 3 here
       if it is different for your molecule then you should correct
       the printed rotational entropy by manually evaluating the equation
       as given above

For convenience we print out the resulting values for sn=1 - 12:
 sn= 1  qrot/sn=  606744.7488 T*S(rot)=     8.78 kcal/mol T*S(tot)=    27.27 kcal/mol
 sn= 2  qrot/sn=  303372.3744 T*S(rot)=     8.37 kcal/mol T*S(tot)=    26.86 kcal/mol
 sn= 3  qrot/sn=  202248.2496 T*S(rot)=     8.13 kcal/mol T*S(tot)=    26.62 kcal/mol
 sn= 4  qrot/sn=  151686.1872 T*S(rot)=     7.96 kcal/mol T*S(tot)=    26.45 kcal/mol
 sn= 5  qrot/sn=  121348.9498 T*S(rot)=     7.82 kcal/mol T*S(tot)=    26.32 kcal/mol
 sn= 6  qrot/sn=  101124.1248 T*S(rot)=     7.72 kcal/mol T*S(tot)=    26.21 kcal/mol
 sn= 7  qrot/sn=   86677.8213 T*S(rot)=     7.63 kcal/mol T*S(tot)=    26.12 kcal/mol
 sn= 8  qrot/sn=   75843.0936 T*S(rot)=     7.55 kcal/mol T*S(tot)=    26.04 kcal/mol
 sn= 9  qrot/sn=   67416.0832 T*S(rot)=     7.48 kcal/mol T*S(tot)=    25.97 kcal/mol
 sn=10  qrot/sn=   60674.4749 T*S(rot)=     7.41 kcal/mol T*S(tot)=    25.91 kcal/mol
 sn=11  qrot/sn=   55158.6135 T*S(rot)=     7.36 kcal/mol T*S(tot)=    25.85 kcal/mol
 sn=12  qrot/sn=   50562.0624 T*S(rot)=     7.31 kcal/mol T*S(tot)=    25.80 kcal/mol

-------------------

                             ****ORCA TERMINATED NORMALLY****
TOTAL RUN TIME: 0 days 0 hours 5 minutes 38 seconds 506 msec
